<?xml version="1.0" encoding="UTF-8"?>

<!-- generated on 2025-06-07 00:01:12 by Eclipse SUMO sumo Version 1.21.0
<sumoConfiguration xmlns:xsi="http://www.w3.org/2001/XMLSchema-instance" xsi:noNamespaceSchemaLocation="http://sumo.dlr.de/xsd/sumoConfiguration.xsd">

    <input>
        <net-file value="C:\Users\kriti\OneDrive\Desktop\capstone\amman.net.xml"/>
        <route-files value="C:\Users\kriti\OneDrive\Desktop\capstone\amman.rou.xml"/>
    </input>

    <output>
        <tripinfo-output value="C:\Users\kriti\OneDrive\Desktop\capstone\amman.tripinfo.xml"/>
    </output>

    <time>
        <begin value="0"/>
        <end value="3900"/>
    </time>

    <processing>
        <scale value="2.5"/>
        <time-to-teleport value="-1"/>
    </processing>

    <report>
        <no-warnings value="true"/>
        <no-step-log value="true"/>
    </report>

    <emissions>
        <device.emissions.probability value="1.0"/>
    </emissions>

    <traci_server>
        <remote-port value="63840"/>
    </traci_server>

</sumoConfiguration>
-->

<tripinfos xmlns:xsi="http://www.w3.org/2001/XMLSchema-instance" xsi:noNamespaceSchemaLocation="http://sumo.dlr.de/xsd/tripinfo_file.xsd">
    <tripinfo id="vehicle_1" depart="0.00" departLane="-E9_0" departPos="5.10" departSpeed="0.00" departDelay="0.00" arrival="25.00" arrivalLane="-E0_0" arrivalPos="92.80" arrivalSpeed="14.73" duration="25.00" routeLength="194.90" waitingTime="0.00" waitingCount="0" stopTime="0.00" timeLoss="11.62" rerouteNo="0" devices="tripinfo_vehicle_1 emissions_vehicle_1" vType="type_0" speedFactor="1.08" vaporized="">
        <emissions CO_abs="2797.040607" CO2_abs="85088.934363" HC_abs="259.192080" PMx_abs="11.563018" NOx_abs="0" fuel_abs="27649.086288" electricity_abs="0"/>
    </tripinfo>
    <tripinfo id="vehicle_0" depart="0.00" departLane="E0_0" departPos="5.10" departSpeed="0.00" departDelay="0.00" arrival="26.00" arrivalLane="E9_0" arrivalPos="92.80" arrivalSpeed="14.67" duration="26.00" routeLength="194.90" waitingTime="0.00" waitingCount="0" stopTime="0.00" timeLoss="12.65" rerouteNo="0" devices="tripinfo_vehicle_0 emissions_vehicle_0" vType="type_0" speedFactor="1.06" vaporized="">
        <emissions CO_abs="2863.004892" CO2_abs="86230.505826" HC_abs="270.360091" PMx_abs="11.666597" NOx_abs="0" fuel_abs="28019.860962" electricity_abs="0"/>
    </tripinfo>
    <tripinfo id="vehicle_0.1" depart="5.00" departLane="E0_0" departPos="5.10" departSpeed="0.00" departDelay="5.00" arrival="31.00" arrivalLane="E9_0" arrivalPos="92.80" arrivalSpeed="12.93" duration="26.00" routeLength="194.90" waitingTime="0.00" waitingCount="0" stopTime="0.00" timeLoss="10.87" rerouteNo="0" devices="tripinfo_vehicle_0.1 emissions_vehicle_0.1" vType="type_0" speedFactor="0.94" vaporized="">
        <emissions CO_abs="2611.390664" CO2_abs="80019.186876" HC_abs="261.235353" PMx_abs="10.491698" NOx_abs="0" fuel_abs="26000.398296" electricity_abs="0"/>
    </tripinfo>
    <tripinfo id="vehicle_1.1" depart="5.00" departLane="-E9_0" departPos="5.10" departSpeed="0.00" departDelay="5.00" arrival="31.00" arrivalLane="-E0_0" arrivalPos="92.80" arrivalSpeed="14.15" duration="26.00" routeLength="194.90" waitingTime="0.00" waitingCount="0" stopTime="0.00" timeLoss="11.64" rerouteNo="0" devices="tripinfo_vehicle_1.1 emissions_vehicle_1.1" vType="type_0" speedFactor="1.03" vaporized="">
        <emissions CO_abs="2780.129953" CO2_abs="84957.393826" HC_abs="265.716172" PMx_abs="11.377744" NOx_abs="0" fuel_abs="27605.799789" electricity_abs="0"/>
    </tripinfo>
    <tripinfo id="vehicle_0.2" depart="10.00" departLane="E0_0" departPos="5.10" departSpeed="0.00" departDelay="10.00" arrival="37.00" arrivalLane="E9_0" arrivalPos="92.80" arrivalSpeed="13.82" duration="27.00" routeLength="194.90" waitingTime="0.00" waitingCount="0" stopTime="0.00" timeLoss="12.82" rerouteNo="0" devices="tripinfo_vehicle_0.2 emissions_vehicle_0.2" vType="type_0" speedFactor="1.01" vaporized="">
        <emissions CO_abs="2856.525637" CO2_abs="85797.755737" HC_abs="279.147525" PMx_abs="11.381642" NOx_abs="0" fuel_abs="27879.120015" electricity_abs="0"/>
    </tripinfo>
    <tripinfo id="vehicle_6" depart="10.00" departLane="-E9_0" departPos="5.10" departSpeed="0.00" departDelay="9.00" arrival="37.00" arrivalLane="-E0_0" arrivalPos="92.80" arrivalSpeed="12.84" duration="27.00" routeLength="194.90" waitingTime="0.00" waitingCount="0" stopTime="0.00" timeLoss="11.12" rerouteNo="0" devices="tripinfo_vehicle_6 emissions_vehicle_6" vType="type_0" speedFactor="0.93" vaporized="">
        <emissions CO_abs="2656.497308" CO2_abs="80610.173255" HC_abs="264.113649" PMx_abs="10.626330" NOx_abs="0" fuel_abs="26192.709788" electricity_abs="0"/>
    </tripinfo>
    <tripinfo id="vehicle_2" depart="0.00" departLane="-E1_0" departPos="5.10" departSpeed="0.00" departDelay="0.00" arrival="48.00" arrivalLane="E8_0" arrivalPos="92.80" arrivalSpeed="11.19" duration="48.00" routeLength="389.53" waitingTime="0.00" waitingCount="0" stopTime="0.00" timeLoss="12.98" rerouteNo="0" devices="tripinfo_vehicle_2 emissions_vehicle_2" vType="type_0" speedFactor="0.83" vaporized="">
        <emissions CO_abs="3733.715076" CO2_abs="122904.556257" HC_abs="404.464900" PMx_abs="15.465641" NOx_abs="0" fuel_abs="39929.897120" electricity_abs="0"/>
    </tripinfo>
    <tripinfo id="vehicle_2.1" depart="5.00" departLane="-E1_0" departPos="5.10" departSpeed="0.00" departDelay="5.00" arrival="49.00" arrivalLane="E8_0" arrivalPos="92.80" arrivalSpeed="12.12" duration="44.00" routeLength="389.53" waitingTime="0.00" waitingCount="0" stopTime="0.00" timeLoss="16.05" rerouteNo="0" devices="tripinfo_vehicle_2.1 emissions_vehicle_2.1" vType="type_0" speedFactor="1.05" vaporized="">
        <emissions CO_abs="3750.904039" CO2_abs="119777.454850" HC_abs="367.483992" PMx_abs="15.837702" NOx_abs="0" fuel_abs="38917.352842" electricity_abs="0"/>
    </tripinfo>
    <tripinfo id="vehicle_3" depart="0.00" departLane="-E11_0" departPos="5.10" departSpeed="0.00" departDelay="0.00" arrival="49.00" arrivalLane="E1_0" arrivalPos="92.80" arrivalSpeed="11.56" duration="49.00" routeLength="189.53" waitingTime="12.00" waitingCount="1" stopTime="0.00" timeLoss="33.06" rerouteNo="0" devices="tripinfo_vehicle_3 emissions_vehicle_3" vType="type_0" speedFactor="0.94" vaporized="">
        <emissions CO_abs="5285.649505" CO2_abs="137838.444972" HC_abs="548.903543" PMx_abs="17.722506" NOx_abs="0" fuel_abs="44796.348555" electricity_abs="0"/>
    </tripinfo>
    <tripinfo id="vehicle_3.1" depart="5.00" departLane="-E11_0" departPos="5.10" departSpeed="0.00" departDelay="5.00" arrival="50.00" arrivalLane="E1_0" arrivalPos="92.80" arrivalSpeed="11.15" duration="45.00" routeLength="189.53" waitingTime="9.00" waitingCount="1" stopTime="0.00" timeLoss="28.28" rerouteNo="0" devices="tripinfo_vehicle_3.1 emissions_vehicle_3.1" vType="type_0" speedFactor="0.86" vaporized="">
        <emissions CO_abs="4745.189206" CO2_abs="124839.869556" HC_abs="495.980162" PMx_abs="16.022454" NOx_abs="0" fuel_abs="40571.109223" electricity_abs="0"/>
    </tripinfo>
    <tripinfo id="vehicle_14" depart="30.00" departLane="E0_0" departPos="5.10" departSpeed="0.00" departDelay="0.00" arrival="56.00" arrivalLane="E9_0" arrivalPos="92.80" arrivalSpeed="14.04" duration="26.00" routeLength="194.90" waitingTime="0.00" waitingCount="0" stopTime="0.00" timeLoss="11.78" rerouteNo="0" devices="tripinfo_vehicle_14 emissions_vehicle_14" vType="type_0" speedFactor="1.02" vaporized="">
        <emissions CO_abs="2753.619225" CO2_abs="84003.139216" HC_abs="265.260169" PMx_abs="11.228953" NOx_abs="0" fuel_abs="27295.530570" electricity_abs="0"/>
    </tripinfo>
    <tripinfo id="vehicle_7" depart="20.00" departLane="-E11_0" departPos="5.10" departSpeed="0.00" departDelay="13.00" arrival="59.00" arrivalLane="E1_0" arrivalPos="92.80" arrivalSpeed="11.88" duration="39.00" routeLength="189.53" waitingTime="0.00" waitingCount="0" stopTime="0.00" timeLoss="22.65" rerouteNo="0" devices="tripinfo_vehicle_7 emissions_vehicle_7" vType="type_0" speedFactor="0.94" vaporized="">
        <emissions CO_abs="3951.086786" CO2_abs="109580.974957" HC_abs="414.437520" PMx_abs="14.162106" NOx_abs="0" fuel_abs="35609.013406" electricity_abs="0"/>
    </tripinfo>
    <tripinfo id="vehicle_6.1" depart="15.00" departLane="-E9_0" departPos="5.10" departSpeed="0.00" departDelay="14.00" arrival="60.00" arrivalLane="-E0_0" arrivalPos="92.80" arrivalSpeed="11.11" duration="45.00" routeLength="194.90" waitingTime="7.00" waitingCount="1" stopTime="0.00" timeLoss="28.99" rerouteNo="0" devices="tripinfo_vehicle_6.1 emissions_vehicle_6.1" vType="type_0" speedFactor="0.88" vaporized="">
        <emissions CO_abs="4611.616504" CO2_abs="123080.378223" HC_abs="478.681465" PMx_abs="15.903108" NOx_abs="0" fuel_abs="39998.464590" electricity_abs="0"/>
    </tripinfo>
    <tripinfo id="vehicle_7.1" depart="25.00" departLane="-E11_0" departPos="5.10" departSpeed="0.00" departDelay="18.00" arrival="60.00" arrivalLane="E1_0" arrivalPos="92.80" arrivalSpeed="12.06" duration="35.00" routeLength="189.53" waitingTime="0.00" waitingCount="0" stopTime="0.00" timeLoss="21.88" rerouteNo="0" devices="tripinfo_vehicle_7.1 emissions_vehicle_7.1" vType="type_0" speedFactor="1.16" vaporized="">
        <emissions CO_abs="3383.607150" CO2_abs="95751.073751" HC_abs="345.132745" PMx_abs="12.617592" NOx_abs="0" fuel_abs="31114.312234" electricity_abs="0"/>
    </tripinfo>
    <tripinfo id="vehicle_4" depart="0.00" departLane="-E8_0" departPos="5.10" departSpeed="0.00" departDelay="0.00" arrival="63.00" arrivalLane="E11_0" arrivalPos="92.80" arrivalSpeed="15.00" duration="63.00" routeLength="394.90" waitingTime="12.00" waitingCount="1" stopTime="0.00" timeLoss="35.77" rerouteNo="0" devices="tripinfo_vehicle_4 emissions_vehicle_4" vType="type_0" speedFactor="1.09" vaporized="">
        <emissions CO_abs="6355.378668" CO2_abs="183326.791854" HC_abs="651.296252" PMx_abs="23.480996" NOx_abs="0" fuel_abs="59573.482853" electricity_abs="0"/>
    </tripinfo>
    <tripinfo id="vehicle_6.2" depart="20.00" departLane="-E9_0" departPos="5.10" departSpeed="0.00" departDelay="19.00" arrival="63.00" arrivalLane="-E0_0" arrivalPos="92.80" arrivalSpeed="11.44" duration="43.00" routeLength="194.90" waitingTime="5.00" waitingCount="1" stopTime="0.00" timeLoss="27.54" rerouteNo="0" devices="tripinfo_vehicle_6.2 emissions_vehicle_6.2" vType="type_0" speedFactor="0.94" vaporized="">
        <emissions CO_abs="4373.717930" CO2_abs="118386.626568" HC_abs="450.623848" PMx_abs="15.398013" NOx_abs="0" fuel_abs="38472.351131" electricity_abs="0"/>
    </tripinfo>
    <tripinfo id="vehicle_4.1" depart="5.00" departLane="-E8_0" departPos="5.10" departSpeed="0.00" departDelay="5.00" arrival="66.00" arrivalLane="E11_0" arrivalPos="92.80" arrivalSpeed="13.93" duration="61.00" routeLength="394.90" waitingTime="8.00" waitingCount="1" stopTime="0.00" timeLoss="32.98" rerouteNo="0" devices="tripinfo_vehicle_4.1 emissions_vehicle_4.1" vType="type_0" speedFactor="1.03" vaporized="">
        <emissions CO_abs="5910.948638" CO2_abs="172820.287200" HC_abs="616.771831" PMx_abs="21.973036" NOx_abs="0" fuel_abs="56157.355502" electricity_abs="0"/>
    </tripinfo>
    <tripinfo id="vehicle_4.2" depart="10.00" departLane="-E8_0" departPos="5.10" departSpeed="0.00" departDelay="10.00" arrival="68.00" arrivalLane="E11_0" arrivalPos="92.80" arrivalSpeed="14.21" duration="58.00" routeLength="394.90" waitingTime="5.00" waitingCount="1" stopTime="0.00" timeLoss="30.10" rerouteNo="0" devices="tripinfo_vehicle_4.2 emissions_vehicle_4.2" vType="type_0" speedFactor="1.05" vaporized="">
        <emissions CO_abs="5508.762953" CO2_abs="163541.564581" HC_abs="568.153064" PMx_abs="20.958032" NOx_abs="0" fuel_abs="53141.450401" electricity_abs="0"/>
    </tripinfo>
    <tripinfo id="vehicle_2.2" depart="10.00" departLane="-E1_0" departPos="5.10" departSpeed="0.00" departDelay="10.00" arrival="70.00" arrivalLane="E8_0" arrivalPos="92.80" arrivalSpeed="11.12" duration="60.00" routeLength="389.53" waitingTime="2.00" waitingCount="1" stopTime="0.00" timeLoss="27.20" rerouteNo="0" devices="tripinfo_vehicle_2.2 emissions_vehicle_2.2" vType="type_0" speedFactor="0.89" vaporized="">
        <emissions CO_abs="5580.773501" CO2_abs="163583.444284" HC_abs="564.505656" PMx_abs="21.488967" NOx_abs="0" fuel_abs="53154.667574" electricity_abs="0"/>
    </tripinfo>
    <tripinfo id="vehicle_5" depart="10.00" departLane="-E11_0" departPos="5.10" departSpeed="0.00" departDelay="10.00" arrival="72.00" arrivalLane="E8_0" arrivalPos="92.80" arrivalSpeed="11.64" duration="62.00" routeLength="394.90" waitingTime="6.00" waitingCount="1" stopTime="0.00" timeLoss="34.92" rerouteNo="0" devices="tripinfo_vehicle_5 emissions_vehicle_5" vType="type_0" speedFactor="1.12" vaporized="">
        <emissions CO_abs="6040.101311" CO2_abs="173368.783594" HC_abs="602.804407" PMx_abs="22.790397" NOx_abs="0" fuel_abs="56337.017973" electricity_abs="0"/>
    </tripinfo>
    <tripinfo id="vehicle_5.1" depart="15.00" departLane="-E11_0" departPos="5.10" departSpeed="0.00" departDelay="15.00" arrival="73.00" arrivalLane="E8_0" arrivalPos="92.80" arrivalSpeed="11.31" duration="58.00" routeLength="394.90" waitingTime="3.00" waitingCount="1" stopTime="0.00" timeLoss="29.19" rerouteNo="0" devices="tripinfo_vehicle_5.1 emissions_vehicle_5.1" vType="type_0" speedFactor="0.99" vaporized="">
        <emissions CO_abs="5306.082709" CO2_abs="155599.931872" HC_abs="535.034190" PMx_abs="20.341952" NOx_abs="0" fuel_abs="50561.266994" electricity_abs="0"/>
    </tripinfo>
    <tripinfo id="vehicle_18" depart="40.00" departLane="-E8_0" departPos="5.10" departSpeed="0.00" departDelay="0.00" arrival="80.00" arrivalLane="E11_0" arrivalPos="92.80" arrivalSpeed="14.73" duration="40.00" routeLength="394.90" waitingTime="0.00" waitingCount="0" stopTime="0.00" timeLoss="12.90" rerouteNo="0" devices="tripinfo_vehicle_18 emissions_vehicle_18" vType="type_0" speedFactor="1.09" vaporized="">
        <emissions CO_abs="3526.367247" CO2_abs="121347.618873" HC_abs="359.474391" PMx_abs="15.434872" NOx_abs="0" fuel_abs="39425.492701" electricity_abs="0"/>
    </tripinfo>
    <tripinfo id="vehicle_8" depart="15.00" departLane="-E1_0" departPos="5.10" departSpeed="0.00" departDelay="6.00" arrival="84.00" arrivalLane="E8_0" arrivalPos="92.80" arrivalSpeed="13.96" duration="69.00" routeLength="389.53" waitingTime="16.00" waitingCount="1" stopTime="0.00" timeLoss="40.42" rerouteNo="0" devices="tripinfo_vehicle_8 emissions_vehicle_8" vType="type_0" speedFactor="1.02" vaporized="">
        <emissions CO_abs="6840.570956" CO2_abs="191343.253151" HC_abs="727.387122" PMx_abs="23.957674" NOx_abs="0" fuel_abs="62179.703190" electricity_abs="0"/>
    </tripinfo>
    <tripinfo id="vehicle_8.1" depart="20.00" departLane="-E1_0" departPos="5.10" departSpeed="0.00" departDelay="11.00" arrival="86.00" arrivalLane="E8_0" arrivalPos="92.80" arrivalSpeed="14.00" duration="66.00" routeLength="389.53" waitingTime="14.00" waitingCount="1" stopTime="0.00" timeLoss="37.42" rerouteNo="0" devices="tripinfo_vehicle_8.1 emissions_vehicle_8.1" vType="type_0" speedFactor="1.01" vaporized="">
        <emissions CO_abs="6510.252413" CO2_abs="184622.066747" HC_abs="687.172569" PMx_abs="23.246535" NOx_abs="0" fuel_abs="59994.558647" electricity_abs="0"/>
    </tripinfo>
    <tripinfo id="vehicle_18.1" depart="46.00" departLane="-E8_0" departPos="5.10" departSpeed="0.00" departDelay="6.00" arrival="87.00" arrivalLane="E11_0" arrivalPos="92.80" arrivalSpeed="13.57" duration="41.00" routeLength="394.90" waitingTime="0.00" waitingCount="0" stopTime="0.00" timeLoss="11.78" rerouteNo="0" devices="tripinfo_vehicle_18.1 emissions_vehicle_18.1" vType="type_0" speedFactor="1.00" vaporized="">
        <emissions CO_abs="3371.911812" CO2_abs="117700.485769" HC_abs="360.322901" PMx_abs="14.654865" NOx_abs="0" fuel_abs="38238.710414" electricity_abs="0"/>
    </tripinfo>
    <tripinfo id="vehicle_8.2" depart="25.00" departLane="-E1_0" departPos="5.10" departSpeed="0.00" departDelay="16.00" arrival="88.00" arrivalLane="E8_0" arrivalPos="92.80" arrivalSpeed="13.38" duration="63.00" routeLength="389.53" waitingTime="9.00" waitingCount="1" stopTime="0.00" timeLoss="33.46" rerouteNo="0" devices="tripinfo_vehicle_8.2 emissions_vehicle_8.2" vType="type_0" speedFactor="0.97" vaporized="">
        <emissions CO_abs="5909.052757" CO2_abs="169965.072074" HC_abs="624.078827" PMx_abs="21.448756" NOx_abs="0" fuel_abs="55230.318706" electricity_abs="0"/>
    </tripinfo>
    <tripinfo id="vehicle_12" depart="31.00" departLane="-E1_0" departPos="5.10" departSpeed="0.00" departDelay="6.00" arrival="90.00" arrivalLane="E8_0" arrivalPos="92.80" arrivalSpeed="14.97" duration="59.00" routeLength="389.53" waitingTime="6.00" waitingCount="1" stopTime="0.00" timeLoss="31.79" rerouteNo="0" devices="tripinfo_vehicle_12 emissions_vehicle_12" vType="type_0" speedFactor="1.18" vaporized="">
        <emissions CO_abs="5706.806785" CO2_abs="164163.820449" HC_abs="570.831934" PMx_abs="21.435039" NOx_abs="0" fuel_abs="53346.505877" electricity_abs="0"/>
    </tripinfo>
    <tripinfo id="vehicle_12.1" depart="36.00" departLane="-E1_0" departPos="5.10" departSpeed="0.00" departDelay="11.00" arrival="91.00" arrivalLane="E8_0" arrivalPos="92.80" arrivalSpeed="14.69" duration="55.00" routeLength="389.53" waitingTime="3.00" waitingCount="1" stopTime="0.00" timeLoss="28.64" rerouteNo="0" devices="tripinfo_vehicle_12.1 emissions_vehicle_12.1" vType="type_0" speedFactor="1.15" vaporized="">
        <emissions CO_abs="5325.065471" CO2_abs="156921.711707" HC_abs="534.920026" PMx_abs="20.437134" NOx_abs="0" fuel_abs="50991.399238" electricity_abs="0"/>
    </tripinfo>
    <tripinfo id="vehicle_18.2" depart="51.00" departLane="-E8_0" departPos="5.10" departSpeed="0.00" departDelay="11.00" arrival="94.00" arrivalLane="E11_0" arrivalPos="92.80" arrivalSpeed="12.47" duration="43.00" routeLength="394.90" waitingTime="0.00" waitingCount="0" stopTime="0.00" timeLoss="10.83" rerouteNo="0" devices="tripinfo_vehicle_18.2 emissions_vehicle_18.2" vType="type_0" speedFactor="0.90" vaporized="">
        <emissions CO_abs="3309.208554" CO2_abs="112743.059996" HC_abs="357.676786" PMx_abs="14.052058" NOx_abs="0" fuel_abs="36628.078919" electricity_abs="0"/>
    </tripinfo>
    <tripinfo id="vehicle_12.2" depart="41.00" departLane="-E1_0" departPos="5.10" departSpeed="0.00" departDelay="16.00" arrival="95.00" arrivalLane="E8_0" arrivalPos="92.80" arrivalSpeed="13.79" duration="54.00" routeLength="389.53" waitingTime="1.00" waitingCount="1" stopTime="0.00" timeLoss="24.10" rerouteNo="0" devices="tripinfo_vehicle_12.2 emissions_vehicle_12.2" vType="type_0" speedFactor="1.01" vaporized="">
        <emissions CO_abs="4826.959794" CO2_abs="149388.272414" HC_abs="511.829393" PMx_abs="18.856463" NOx_abs="0" fuel_abs="48539.320796" electricity_abs="0"/>
    </tripinfo>
    <tripinfo id="vehicle_13" depart="46.00" departLane="-E1_0" departPos="5.10" departSpeed="0.00" departDelay="20.00" arrival="96.00" arrivalLane="E8_0" arrivalPos="92.80" arrivalSpeed="14.17" duration="50.00" routeLength="389.53" waitingTime="0.00" waitingCount="0" stopTime="0.00" timeLoss="23.29" rerouteNo="0" devices="tripinfo_vehicle_13 emissions_vehicle_13" vType="type_0" speedFactor="1.17" vaporized="">
        <emissions CO_abs="4362.479707" CO2_abs="135727.211275" HC_abs="444.371894" PMx_abs="17.563597" NOx_abs="0" fuel_abs="44100.850551" electricity_abs="0"/>
    </tripinfo>
    <tripinfo id="vehicle_9" depart="30.00" departLane="-E11_0" departPos="5.10" departSpeed="0.00" departDelay="21.00" arrival="99.00" arrivalLane="E1_0" arrivalPos="92.80" arrivalSpeed="11.17" duration="69.00" routeLength="189.53" waitingTime="28.00" waitingCount="1" stopTime="0.00" timeLoss="52.14" rerouteNo="0" devices="tripinfo_vehicle_9 emissions_vehicle_9" vType="type_0" speedFactor="0.89" vaporized="">
        <emissions CO_abs="7375.162476" CO2_abs="181315.326784" HC_abs="800.335618" PMx_abs="22.427770" NOx_abs="0" fuel_abs="58930.485788" electricity_abs="0"/>
    </tripinfo>
    <tripinfo id="vehicle_9.1" depart="35.00" departLane="-E11_0" departPos="5.10" departSpeed="0.00" departDelay="26.00" arrival="100.00" arrivalLane="E1_0" arrivalPos="92.80" arrivalSpeed="11.33" duration="65.00" routeLength="189.53" waitingTime="27.00" waitingCount="1" stopTime="0.00" timeLoss="47.75" rerouteNo="0" devices="tripinfo_vehicle_9.1 emissions_vehicle_9.1" vType="type_0" speedFactor="0.83" vaporized="">
        <emissions CO_abs="7015.380465" CO2_abs="172367.779996" HC_abs="755.636293" PMx_abs="21.386611" NOx_abs="0" fuel_abs="56022.847614" electricity_abs="0"/>
    </tripinfo>
    <tripinfo id="vehicle_10" depart="40.00" departLane="-E11_0" departPos="5.10" departSpeed="0.00" departDelay="30.00" arrival="102.00" arrivalLane="E1_0" arrivalPos="92.80" arrivalSpeed="11.63" duration="62.00" routeLength="189.53" waitingTime="25.00" waitingCount="1" stopTime="0.00" timeLoss="45.25" rerouteNo="0" devices="tripinfo_vehicle_10 emissions_vehicle_10" vType="type_0" speedFactor="0.87" vaporized="">
        <emissions CO_abs="6783.642900" CO2_abs="168341.880435" HC_abs="726.447834" PMx_abs="20.993607" NOx_abs="0" fuel_abs="54713.637572" electricity_abs="0"/>
    </tripinfo>
    <tripinfo id="vehicle_10.1" depart="45.00" departLane="-E11_0" departPos="5.10" departSpeed="0.00" departDelay="35.00" arrival="105.00" arrivalLane="E1_0" arrivalPos="92.80" arrivalSpeed="11.93" duration="60.00" routeLength="189.53" waitingTime="23.00" waitingCount="1" stopTime="0.00" timeLoss="44.51" rerouteNo="0" devices="tripinfo_vehicle_10.1 emissions_vehicle_10.1" vType="type_0" speedFactor="0.92" vaporized="">
        <emissions CO_abs="6657.894516" CO2_abs="165924.483966" HC_abs="711.863566" PMx_abs="20.742015" NOx_abs="0" fuel_abs="53927.580152" electricity_abs="0"/>
    </tripinfo>
    <tripinfo id="vehicle_10.2" depart="50.00" departLane="-E11_0" departPos="5.10" departSpeed="0.00" departDelay="40.00" arrival="108.00" arrivalLane="E1_0" arrivalPos="92.80" arrivalSpeed="12.08" duration="58.00" routeLength="189.53" waitingTime="19.00" waitingCount="1" stopTime="0.00" timeLoss="42.17" rerouteNo="0" devices="tripinfo_vehicle_10.2 emissions_vehicle_10.2" vType="type_0" speedFactor="0.95" vaporized="">
        <emissions CO_abs="6182.596176" CO2_abs="156001.177732" HC_abs="665.231228" PMx_abs="19.462472" NOx_abs="0" fuel_abs="50701.080743" electricity_abs="0"/>
    </tripinfo>
    <tripinfo id="vehicle_14.1" depart="35.00" departLane="E0_0" departPos="5.10" departSpeed="0.00" departDelay="5.00" arrival="109.00" arrivalLane="E9_0" arrivalPos="92.80" arrivalSpeed="11.55" duration="74.00" routeLength="194.90" waitingTime="37.00" waitingCount="1" stopTime="0.00" timeLoss="58.89" rerouteNo="0" devices="tripinfo_vehicle_14.1 emissions_vehicle_14.1" vType="type_0" speedFactor="0.97" vaporized="">
        <emissions CO_abs="8220.520299" CO2_abs="200370.669190" HC_abs="885.077239" PMx_abs="24.784660" NOx_abs="0" fuel_abs="65125.426448" electricity_abs="0"/>
    </tripinfo>
    <tripinfo id="vehicle_11" depart="55.00" departLane="-E11_0" departPos="5.10" departSpeed="0.00" departDelay="38.00" arrival="110.00" arrivalLane="E1_0" arrivalPos="92.80" arrivalSpeed="12.91" duration="55.00" routeLength="189.53" waitingTime="17.00" waitingCount="1" stopTime="0.00" timeLoss="41.19" rerouteNo="0" devices="tripinfo_vehicle_11 emissions_vehicle_11" vType="type_0" speedFactor="1.13" vaporized="">
        <emissions CO_abs="5923.867539" CO2_abs="151460.533848" HC_abs="626.771408" PMx_abs="19.131286" NOx_abs="0" fuel_abs="49224.832088" electricity_abs="0"/>
    </tripinfo>
    <tripinfo id="vehicle_24" depart="67.00" departLane="-E9_0" departPos="5.10" departSpeed="0.00" departDelay="0.00" arrival="110.00" arrivalLane="-E0_0" arrivalPos="92.80" arrivalSpeed="11.30" duration="43.00" routeLength="194.90" waitingTime="5.00" waitingCount="1" stopTime="0.00" timeLoss="29.47" rerouteNo="0" devices="tripinfo_vehicle_24 emissions_vehicle_24" vType="type_0" speedFactor="1.08" vaporized="">
        <emissions CO_abs="4507.220452" CO2_abs="121654.117290" HC_abs="463.630566" PMx_abs="15.826803" NOx_abs="0" fuel_abs="39534.429765" electricity_abs="0"/>
    </tripinfo>
    <tripinfo id="vehicle_14.2" depart="40.00" departLane="E0_0" departPos="5.10" departSpeed="0.00" departDelay="10.00" arrival="111.00" arrivalLane="E9_0" arrivalPos="92.80" arrivalSpeed="11.94" duration="71.00" routeLength="194.90" waitingTime="33.00" waitingCount="1" stopTime="0.00" timeLoss="57.39" rerouteNo="0" devices="tripinfo_vehicle_14.2 emissions_vehicle_14.2" vType="type_0" speedFactor="1.18" vaporized="">
        <emissions CO_abs="7831.781415" CO2_abs="191319.080429" HC_abs="845.272229" PMx_abs="23.634634" NOx_abs="0" fuel_abs="62183.113102" electricity_abs="0"/>
    </tripinfo>
    <tripinfo id="vehicle_24.1" depart="72.00" departLane="-E9_0" departPos="5.10" departSpeed="0.00" departDelay="5.00" arrival="112.00" arrivalLane="-E0_0" arrivalPos="92.80" arrivalSpeed="11.88" duration="40.00" routeLength="194.90" waitingTime="1.00" waitingCount="1" stopTime="0.00" timeLoss="26.41" rerouteNo="0" devices="tripinfo_vehicle_24.1 emissions_vehicle_24.1" vType="type_0" speedFactor="1.12" vaporized="">
        <emissions CO_abs="4198.989592" CO2_abs="115581.774277" HC_abs="431.997473" PMx_abs="15.074949" NOx_abs="0" fuel_abs="37559.892569" electricity_abs="0"/>
    </tripinfo>
    <tripinfo id="vehicle_11.1" depart="60.00" departLane="-E11_0" departPos="5.10" departSpeed="0.00" departDelay="43.00" arrival="113.00" arrivalLane="E1_0" arrivalPos="92.80" arrivalSpeed="11.65" duration="53.00" routeLength="189.53" waitingTime="13.00" waitingCount="1" stopTime="0.00" timeLoss="37.28" rerouteNo="0" devices="tripinfo_vehicle_11.1 emissions_vehicle_11.1" vType="type_0" speedFactor="0.93" vaporized="">
        <emissions CO_abs="5507.963329" CO2_abs="139715.945511" HC_abs="591.184170" PMx_abs="17.519399" NOx_abs="0" fuel_abs="45407.809167" electricity_abs="0"/>
    </tripinfo>
    <tripinfo id="vehicle_22" depart="61.00" departLane="E0_0" departPos="5.10" departSpeed="0.00" departDelay="0.00" arrival="113.00" arrivalLane="E9_0" arrivalPos="92.80" arrivalSpeed="12.34" duration="52.00" routeLength="194.90" waitingTime="15.00" waitingCount="1" stopTime="0.00" timeLoss="37.36" rerouteNo="0" devices="tripinfo_vehicle_22 emissions_vehicle_22" vType="type_0" speedFactor="1.00" vaporized="">
        <emissions CO_abs="5623.714562" CO2_abs="144836.650813" HC_abs="589.380987" PMx_abs="18.449703" NOx_abs="0" fuel_abs="47071.631945" electricity_abs="0"/>
    </tripinfo>
    <tripinfo id="vehicle_24.2" depart="77.00" departLane="-E9_0" departPos="5.10" departSpeed="0.00" departDelay="10.00" arrival="114.00" arrivalLane="-E0_0" arrivalPos="92.80" arrivalSpeed="11.81" duration="37.00" routeLength="194.90" waitingTime="0.00" waitingCount="0" stopTime="0.00" timeLoss="22.40" rerouteNo="0" devices="tripinfo_vehicle_24.2 emissions_vehicle_24.2" vType="type_0" speedFactor="1.02" vaporized="">
        <emissions CO_abs="3500.516830" CO2_abs="100084.189292" HC_abs="353.526179" PMx_abs="13.237597" NOx_abs="0" fuel_abs="32522.113456" electricity_abs="0"/>
    </tripinfo>
    <tripinfo id="vehicle_13.1" depart="51.00" departLane="-E1_0" departPos="5.10" departSpeed="0.00" departDelay="25.00" arrival="120.00" arrivalLane="E8_0" arrivalPos="92.80" arrivalSpeed="11.11" duration="69.00" routeLength="389.53" waitingTime="8.00" waitingCount="1" stopTime="0.00" timeLoss="39.91" rerouteNo="0" devices="tripinfo_vehicle_13.1 emissions_vehicle_13.1" vType="type_0" speedFactor="0.99" vaporized="">
        <emissions CO_abs="6683.482260" CO2_abs="188116.714297" HC_abs="684.963026" PMx_abs="24.429992" NOx_abs="0" fuel_abs="61130.076788" electricity_abs="0"/>
    </tripinfo>
    <tripinfo id="vehicle_17" depart="81.00" departLane="-E11_0" departPos="5.10" departSpeed="0.00" departDelay="43.00" arrival="121.00" arrivalLane="E1_0" arrivalPos="92.80" arrivalSpeed="12.82" duration="40.00" routeLength="189.53" waitingTime="4.00" waitingCount="1" stopTime="0.00" timeLoss="25.54" rerouteNo="0" devices="tripinfo_vehicle_17 emissions_vehicle_17" vType="type_0" speedFactor="1.04" vaporized="">
        <emissions CO_abs="4084.480005" CO2_abs="111551.537280" HC_abs="423.808556" PMx_abs="14.377661" NOx_abs="0" fuel_abs="36250.861771" electricity_abs="0"/>
    </tripinfo>
    <tripinfo id="vehicle_15" depart="56.00" departLane="-E1_0" departPos="5.10" departSpeed="0.00" departDelay="24.00" arrival="122.00" arrivalLane="E8_0" arrivalPos="92.80" arrivalSpeed="11.56" duration="66.00" routeLength="389.53" waitingTime="8.00" waitingCount="1" stopTime="0.00" timeLoss="39.47" rerouteNo="0" devices="tripinfo_vehicle_15 emissions_vehicle_15" vType="type_0" speedFactor="1.10" vaporized="">
        <emissions CO_abs="6466.282860" CO2_abs="183161.800301" HC_abs="660.494121" PMx_abs="23.751727" NOx_abs="0" fuel_abs="59519.836465" electricity_abs="0"/>
    </tripinfo>
    <tripinfo id="vehicle_17.1" depart="86.00" departLane="-E11_0" departPos="5.10" departSpeed="0.00" departDelay="48.00" arrival="123.00" arrivalLane="E1_0" arrivalPos="92.80" arrivalSpeed="11.96" duration="37.00" routeLength="189.53" waitingTime="1.00" waitingCount="1" stopTime="0.00" timeLoss="23.24" rerouteNo="0" devices="tripinfo_vehicle_17.1 emissions_vehicle_17.1" vType="type_0" speedFactor="1.04" vaporized="">
        <emissions CO_abs="3636.577895" CO2_abs="100924.998783" HC_abs="381.910248" PMx_abs="12.955620" NOx_abs="0" fuel_abs="32796.409293" electricity_abs="0"/>
    </tripinfo>